
     Program PWSCF v.6.3MaX starts on 10Nov2019 at  5:35: 9 

     This program is part of the open-source Quantum ESPRESSO suite
     for quantum simulation of materials; please cite
         "P. Giannozzi et al., J. Phys.:Condens. Matter 21 395502 (2009);
         "P. Giannozzi et al., J. Phys.:Condens. Matter 29 465901 (2017);
          URL http://www.quantum-espresso.org", 
     in publications or presentations arising from this work. More details at
     http://www.quantum-espresso.org/quote

     Serial version
     Waiting for input...
     Reading input from standard input
Warning: card   SB      0.00000000000000   0.00000000000000   0.00000000000000  ! // SB ignored

     Current dimensions of program PWSCF are:
     Max number of different atomic species (ntypx) = 10
     Max number of k-points (npk) =  40000
     Max angular momentum in pseudopotentials (lmaxx) =  3
               file Li.pbe-mt_fhi.UPF: wavefunction(s)  2p 4f renormalized
               file Sb.pbe-mt_fhi.UPF: wavefunction(s)  5d 4f renormalized
     Message from routine setup:
     the system is metallic, specify occupations

     G-vector sticks info
     --------------------
     sticks:   dense  smooth     PW     G-vecs:    dense   smooth      PW
     Sum        1273    1273    379                29939    29939    4909


     Title: 
     Li3Sb                                                                      


     bravais-lattice index     =            0
     lattice parameter (alat)  =       8.7681  a.u.
     unit-cell volume          =     476.6464 (a.u.)^3
     number of atoms/cell      =            3
     number of atomic types    =            2
     number of electrons       =         3.00
     number of Kohn-Sham states=           16
     kinetic-energy cutoff     =      60.0000  Ry
     charge density cutoff     =     240.0000  Ry
     convergence threshold     =      1.0E-10
     mixing beta               =       0.7000
     number of iterations used =            8  plain     mixing
     Exchange-correlation      = PBE ( 1  4  3  4 0 0)
     nstep                     =           50


     celldm(1)=   8.768065  celldm(2)=   0.000000  celldm(3)=   0.000000
     celldm(4)=   0.000000  celldm(5)=   0.000000  celldm(6)=   0.000000

     crystal axes: (cart. coord. in units of alat)
               a(1) = (   0.866025   0.000000   0.500000 )  
               a(2) = (   0.288675   0.816497   0.500000 )  
               a(3) = (   0.000000   0.000000   1.000000 )  

     reciprocal axes: (cart. coord. in units 2 pi/alat)
               b(1) = (  1.154701 -0.408248  0.000000 )  
               b(2) = (  0.000000  1.224745  0.000000 )  
               b(3) = ( -0.577350 -0.408248  1.000000 )  


     PseudoPot. # 1 for Li read from file:
     /usr/share/espresso/pseudo/Li.pbe-mt_fhi.UPF
     MD5 check sum: 3419f5616d131090147e867976aae79b
     Pseudo is Norm-conserving + core correction, Zval =  1.0
     Generated using FHI98PP, converted with fhi2upf.x v.5.0.2
     Using radial grid of  433 points,  3 beta functions with: 
                l(1) =   0
                l(2) =   1
                l(3) =   3

     PseudoPot. # 2 for Sb read from file:
     /usr/share/espresso/pseudo/Sb.pbe-mt_fhi.UPF
     MD5 check sum: a397804b11cf6172040a3303d3d0a255
     Pseudo is Norm-conserving, Zval =  5.0
     Generated using FHI98PP, converted with fhi2upf.x v.5.0.2
     Using radial grid of  549 points,  3 beta functions with: 
                l(1) =   1
                l(2) =   2
                l(3) =   3

     atomic species   valence    mass     pseudopotential
        Li             1.00     6.94100     Li( 1.00)
        Sb             5.00   121.75000     Sb( 1.00)

      4 Sym. Ops., with inversion, found


                                    s                        frac. trans.

      isym =  1     identity                                     

 cryst.   s( 1) = (     1          0          0      )
                  (     0          1          0      )
                  (     0          0          1      )

 cart.    s( 1) = (  1.0000000  0.0000000  0.0000000 )
                  (  0.0000000  1.0000000  0.0000000 )
                  (  0.0000000  0.0000000  1.0000000 )


      isym =  2     180 deg rotation - cart. axis [0,0,1]        

 cryst.   s( 2) = (    -1          0          1      )
                  (     0         -1          1      )
                  (     0          0          1      )

 cart.    s( 2) = ( -1.0000000 -0.0000000  0.0000000 )
                  (  0.0000000 -1.0000000  0.0000000 )
                  (  0.0000000  0.0000000  1.0000000 )


      isym =  3     inversion                                    

 cryst.   s( 3) = (    -1          0          0      )
                  (     0         -1          0      )
                  (     0          0         -1      )

 cart.    s( 3) = ( -1.0000000 -0.0000000  0.0000000 )
                  (  0.0000000 -1.0000000  0.0000000 )
                  (  0.0000000 -0.0000000 -1.0000000 )


      isym =  4     inv. 180 deg rotation - cart. axis [0,0,1]   

 cryst.   s( 4) = (     1          0         -1      )
                  (     0          1         -1      )
                  (     0          0         -1      )

 cart.    s( 4) = (  1.0000000  0.0000000  0.0000000 )
                  (  0.0000000  1.0000000  0.0000000 )
                  (  0.0000000 -0.0000000 -1.0000000 )


   Cartesian axes

     site n.     atom                  positions (alat units)
         1           Li  tau(   1) = (   0.5773502   0.4082483   0.9999999  )
         2           Li  tau(   2) = (   0.2886751   0.2041241   0.5000000  )
         3           Li  tau(   3) = (   0.8660254   0.6123724   1.4999999  )

   Crystallographic axes

     site n.     atom                  positions (cryst. coord.)
         1           Li  tau(   1) = (  0.5000000  0.5000000  0.5000000  )
         2           Li  tau(   2) = (  0.2500000  0.2500000  0.2500000  )
         3           Li  tau(   3) = (  0.7500000  0.7500000  0.7500000  )

     number of k points=   282
                       cart. coord. in units 2pi/alat
        k(    1) = (   0.0000000   0.0000000   0.0000000), wk =   0.0020000
        k(    2) = (  -0.0577350  -0.0408248   0.1000000), wk =   0.0080000
        k(    3) = (  -0.1154701  -0.0816497   0.2000000), wk =   0.0080000
        k(    4) = (  -0.1732051  -0.1224745   0.3000000), wk =   0.0080000
        k(    5) = (  -0.2309401  -0.1632993   0.4000000), wk =   0.0080000
        k(    6) = (   0.2886751   0.2041242  -0.5000000), wk =   0.0040000
        k(    7) = (   0.0000000   0.1224745   0.0000000), wk =   0.0040000
        k(    8) = (  -0.0577350   0.0816497   0.1000000), wk =   0.0080000
        k(    9) = (  -0.1154701   0.0408248   0.2000000), wk =   0.0080000
        k(   10) = (  -0.1732051  -0.0000000   0.3000000), wk =   0.0080000
        k(   11) = (  -0.2309401  -0.0408249   0.4000000), wk =   0.0080000
        k(   12) = (   0.2886751   0.3265987  -0.5000000), wk =   0.0080000
        k(   13) = (   0.2309401   0.2857738  -0.4000000), wk =   0.0080000
        k(   14) = (   0.1732051   0.2449490  -0.3000000), wk =   0.0080000
        k(   15) = (   0.1154701   0.2041242  -0.2000000), wk =   0.0080000
        k(   16) = (   0.0577350   0.1632993  -0.1000000), wk =   0.0080000
        k(   17) = (   0.0000000   0.2449490   0.0000000), wk =   0.0040000
        k(   18) = (  -0.0577350   0.2041241   0.1000000), wk =   0.0080000
        k(   19) = (  -0.1154701   0.1632993   0.2000000), wk =   0.0080000
        k(   20) = (  -0.1732051   0.1224745   0.3000000), wk =   0.0080000
        k(   21) = (  -0.2309401   0.0816496   0.4000000), wk =   0.0080000
        k(   22) = (   0.2886751   0.4490732  -0.5000000), wk =   0.0080000
        k(   23) = (   0.2309401   0.4082483  -0.4000000), wk =   0.0080000
        k(   24) = (   0.1732051   0.3674235  -0.3000000), wk =   0.0080000
        k(   25) = (   0.1154701   0.3265987  -0.2000000), wk =   0.0080000
        k(   26) = (   0.0577350   0.2857738  -0.1000000), wk =   0.0080000
        k(   27) = (   0.0000000   0.3674235   0.0000000), wk =   0.0040000
        k(   28) = (  -0.0577350   0.3265986   0.1000000), wk =   0.0080000
        k(   29) = (  -0.1154701   0.2857738   0.2000000), wk =   0.0080000
        k(   30) = (  -0.1732051   0.2449490   0.3000000), wk =   0.0080000
        k(   31) = (  -0.2309401   0.2041241   0.4000000), wk =   0.0080000
        k(   32) = (   0.2886751   0.5715476  -0.5000000), wk =   0.0080000
        k(   33) = (   0.2309401   0.5307228  -0.4000000), wk =   0.0080000
        k(   34) = (   0.1732051   0.4898980  -0.3000000), wk =   0.0080000
        k(   35) = (   0.1154701   0.4490731  -0.2000000), wk =   0.0080000
        k(   36) = (   0.0577350   0.4082483  -0.1000000), wk =   0.0080000
        k(   37) = (   0.0000000   0.4898980   0.0000000), wk =   0.0040000
        k(   38) = (  -0.0577350   0.4490731   0.1000000), wk =   0.0080000
        k(   39) = (  -0.1154701   0.4082483   0.2000000), wk =   0.0080000
        k(   40) = (  -0.1732051   0.3674235   0.3000000), wk =   0.0080000
        k(   41) = (  -0.2309401   0.3265986   0.4000000), wk =   0.0080000
        k(   42) = (   0.2886751   0.6940221  -0.5000000), wk =   0.0080000
        k(   43) = (   0.2309401   0.6531973  -0.4000000), wk =   0.0080000
        k(   44) = (   0.1732051   0.6123725  -0.3000000), wk =   0.0080000
        k(   45) = (   0.1154701   0.5715476  -0.2000000), wk =   0.0080000
        k(   46) = (   0.0577350   0.5307228  -0.1000000), wk =   0.0080000
        k(   47) = (   0.0000000  -0.6123724   0.0000000), wk =   0.0020000
        k(   48) = (  -0.0577350  -0.6531973   0.1000000), wk =   0.0080000
        k(   49) = (  -0.1154701  -0.6940221   0.2000000), wk =   0.0080000
        k(   50) = (  -0.1732051  -0.7348470   0.3000000), wk =   0.0080000
        k(   51) = (  -0.2309401  -0.7756718   0.4000000), wk =   0.0080000
        k(   52) = (   0.2886751  -0.4082483  -0.5000000), wk =   0.0040000
        k(   53) = (   0.1154701  -0.0408248   0.0000000), wk =   0.0040000
        k(   54) = (   0.0000000  -0.1224745   0.2000000), wk =   0.0080000
        k(   55) = (  -0.0577350  -0.1632993   0.3000000), wk =   0.0080000
        k(   56) = (  -0.1154701  -0.2041242   0.4000000), wk =   0.0080000
        k(   57) = (   0.4041452   0.1632994  -0.5000000), wk =   0.0080000
        k(   58) = (   0.3464102   0.1224745  -0.4000000), wk =   0.0080000
        k(   59) = (   0.2886751   0.0816497  -0.3000000), wk =   0.0080000
        k(   60) = (   0.2309401   0.0408249  -0.2000000), wk =   0.0080000
        k(   61) = (   0.1732051   0.0000000  -0.1000000), wk =   0.0080000
        k(   62) = (   0.1154701   0.0816497   0.0000000), wk =   0.0040000
        k(   63) = (   0.0000000   0.0000000   0.2000000), wk =   0.0040000
        k(   64) = (  -0.0577350  -0.0408248   0.3000000), wk =   0.0080000
        k(   65) = (  -0.1154701  -0.0816497   0.4000000), wk =   0.0080000
        k(   66) = (   0.4041452   0.2857738  -0.5000000), wk =   0.0080000
        k(   67) = (   0.3464102   0.2449490  -0.4000000), wk =   0.0080000
        k(   68) = (   0.2886751   0.2041242  -0.3000000), wk =   0.0080000
        k(   69) = (   0.2309401   0.1632993  -0.2000000), wk =   0.0080000
        k(   70) = (   0.1732051   0.1224745  -0.1000000), wk =   0.0080000
        k(   71) = (   0.1154701   0.2041242   0.0000000), wk =   0.0040000
        k(   72) = (  -0.0577350   0.0816497   0.3000000), wk =   0.0080000
        k(   73) = (  -0.1154701   0.0408248   0.4000000), wk =   0.0080000
        k(   74) = (   0.4041452   0.4082483  -0.5000000), wk =   0.0080000
        k(   75) = (   0.3464102   0.3674235  -0.4000000), wk =   0.0080000
        k(   76) = (   0.2886751   0.3265987  -0.3000000), wk =   0.0080000
        k(   77) = (   0.2309401   0.2857738  -0.2000000), wk =   0.0080000
        k(   78) = (   0.1732051   0.2449490  -0.1000000), wk =   0.0080000
        k(   79) = (   0.1154701   0.3265987   0.0000000), wk =   0.0040000
        k(   80) = (   0.0000000   0.2449490   0.2000000), wk =   0.0080000
        k(   81) = (  -0.0577350   0.2041241   0.3000000), wk =   0.0080000
        k(   82) = (  -0.1154701   0.1632993   0.4000000), wk =   0.0080000
        k(   83) = (   0.4041452   0.5307228  -0.5000000), wk =   0.0080000
        k(   84) = (   0.3464102   0.4898980  -0.4000000), wk =   0.0080000
        k(   85) = (   0.2886751   0.4490732  -0.3000000), wk =   0.0080000
        k(   86) = (   0.2309401   0.4082483  -0.2000000), wk =   0.0080000
        k(   87) = (   0.1732051   0.3674235  -0.1000000), wk =   0.0080000
        k(   88) = (   0.1154701   0.4490731   0.0000000), wk =   0.0040000
        k(   89) = (   0.0000000   0.3674235   0.2000000), wk =   0.0080000
        k(   90) = (  -0.0577350   0.3265986   0.3000000), wk =   0.0080000
        k(   91) = (  -0.1154701   0.2857738   0.4000000), wk =   0.0080000
        k(   92) = (   0.4041452   0.6531973  -0.5000000), wk =   0.0080000
        k(   93) = (   0.3464102   0.6123725  -0.4000000), wk =   0.0080000
        k(   94) = (   0.2886751   0.5715476  -0.3000000), wk =   0.0080000
        k(   95) = (   0.2309401   0.5307228  -0.2000000), wk =   0.0080000
        k(   96) = (   0.1732051   0.4898980  -0.1000000), wk =   0.0080000
        k(   97) = (   0.1154701  -0.6531973   0.0000000), wk =   0.0040000
        k(   98) = (   0.0000000  -0.7348469   0.2000000), wk =   0.0080000
        k(   99) = (  -0.0577350  -0.7756718   0.3000000), wk =   0.0080000
        k(  100) = (  -0.1154701  -0.8164966   0.4000000), wk =   0.0080000
        k(  101) = (   0.4041452  -0.4490731  -0.5000000), wk =   0.0080000
        k(  102) = (   0.3464102  -0.4898979  -0.4000000), wk =   0.0080000
        k(  103) = (   0.2886751  -0.5307228  -0.3000000), wk =   0.0080000
        k(  104) = (   0.2309401  -0.5715476  -0.2000000), wk =   0.0080000
        k(  105) = (   0.1732051  -0.6123724  -0.1000000), wk =   0.0080000
        k(  106) = (   0.1154701  -0.5307228   0.0000000), wk =   0.0040000
        k(  107) = (   0.0000000  -0.6123724   0.2000000), wk =   0.0040000
        k(  108) = (  -0.0577350  -0.6531973   0.3000000), wk =   0.0080000
        k(  109) = (  -0.1154701  -0.6940221   0.4000000), wk =   0.0080000
        k(  110) = (   0.4041452  -0.3265986  -0.5000000), wk =   0.0080000
        k(  111) = (   0.3464102  -0.3674234  -0.4000000), wk =   0.0080000
        k(  112) = (   0.2886751  -0.4082483  -0.3000000), wk =   0.0080000
        k(  113) = (   0.2309401  -0.4490731  -0.2000000), wk =   0.0080000
        k(  114) = (   0.1732051  -0.4898979  -0.1000000), wk =   0.0080000
        k(  115) = (   0.1154701  -0.4082483   0.0000000), wk =   0.0040000
        k(  116) = (  -0.0577350  -0.5307228   0.3000000), wk =   0.0080000
        k(  117) = (  -0.1154701  -0.5715476   0.4000000), wk =   0.0080000
        k(  118) = (   0.4041452  -0.2041241  -0.5000000), wk =   0.0080000
        k(  119) = (   0.3464102  -0.2449489  -0.4000000), wk =   0.0080000
        k(  120) = (   0.2886751  -0.2857738  -0.3000000), wk =   0.0080000
        k(  121) = (   0.2309401  -0.3265986  -0.2000000), wk =   0.0080000
        k(  122) = (   0.1732051  -0.3674235  -0.1000000), wk =   0.0080000
        k(  123) = (   0.1154701  -0.2857738   0.0000000), wk =   0.0040000
        k(  124) = (  -0.0577350  -0.4082483   0.3000000), wk =   0.0080000
        k(  125) = (  -0.1154701  -0.4490731   0.4000000), wk =   0.0080000
        k(  126) = (   0.4041452  -0.0816496  -0.5000000), wk =   0.0080000
        k(  127) = (   0.3464102  -0.1224745  -0.4000000), wk =   0.0080000
        k(  128) = (   0.2886751  -0.1632993  -0.3000000), wk =   0.0080000
        k(  129) = (   0.2309401  -0.2041241  -0.2000000), wk =   0.0080000
        k(  130) = (   0.1732051  -0.2449490  -0.1000000), wk =   0.0080000
        k(  131) = (   0.1154701  -0.1632993   0.0000000), wk =   0.0040000
        k(  132) = (  -0.0577350  -0.2857738   0.3000000), wk =   0.0080000
        k(  133) = (  -0.1154701  -0.3265987   0.4000000), wk =   0.0080000
        k(  134) = (   0.4041452   0.0408249  -0.5000000), wk =   0.0080000
        k(  135) = (   0.3464102   0.0000000  -0.4000000), wk =   0.0080000
        k(  136) = (   0.2886751  -0.0408248  -0.3000000), wk =   0.0080000
        k(  137) = (   0.2309401  -0.0816496  -0.2000000), wk =   0.0080000
        k(  138) = (   0.1732051  -0.1224745  -0.1000000), wk =   0.0080000
        k(  139) = (   0.2309401  -0.0816496   0.0000000), wk =   0.0040000
        k(  140) = (   0.0000000  -0.2449490   0.4000000), wk =   0.0080000
        k(  141) = (   0.5196152   0.1224745  -0.5000000), wk =   0.0080000
        k(  142) = (   0.4618802   0.0816497  -0.4000000), wk =   0.0080000
        k(  143) = (   0.4041452   0.0408249  -0.3000000), wk =   0.0080000
        k(  144) = (   0.3464102   0.0000000  -0.2000000), wk =   0.0080000
        k(  145) = (   0.2886751  -0.0408248  -0.1000000), wk =   0.0080000
        k(  146) = (   0.2309401   0.0408249   0.0000000), wk =   0.0040000
        k(  147) = (   0.0000000  -0.1224745   0.4000000), wk =   0.0080000
        k(  148) = (   0.5196152   0.2449490  -0.5000000), wk =   0.0080000
        k(  149) = (   0.4618802   0.2041242  -0.4000000), wk =   0.0080000
        k(  150) = (   0.4041452   0.1632994  -0.3000000), wk =   0.0080000
        k(  151) = (   0.3464102   0.1224745  -0.2000000), wk =   0.0080000
        k(  152) = (   0.2886751   0.0816497  -0.1000000), wk =   0.0080000
        k(  153) = (   0.2309401   0.1632993   0.0000000), wk =   0.0040000
        k(  154) = (   0.0000000   0.0000000   0.4000000), wk =   0.0040000
        k(  155) = (   0.5196152   0.3674235  -0.5000000), wk =   0.0080000
        k(  156) = (   0.4618802   0.3265987  -0.4000000), wk =   0.0080000
        k(  157) = (   0.4041452   0.2857738  -0.3000000), wk =   0.0080000
        k(  158) = (   0.3464102   0.2449490  -0.2000000), wk =   0.0080000
        k(  159) = (   0.2886751   0.2041242  -0.1000000), wk =   0.0080000
        k(  160) = (   0.2309401   0.2857738   0.0000000), wk =   0.0040000
        k(  161) = (   0.5196152   0.4898980  -0.5000000), wk =   0.0080000
        k(  162) = (   0.4618802   0.4490732  -0.4000000), wk =   0.0080000
        k(  163) = (   0.4041452   0.4082483  -0.3000000), wk =   0.0080000
        k(  164) = (   0.3464102   0.3674235  -0.2000000), wk =   0.0080000
        k(  165) = (   0.2886751   0.3265987  -0.1000000), wk =   0.0080000
        k(  166) = (   0.2309401   0.4082483   0.0000000), wk =   0.0040000
        k(  167) = (   0.5196152   0.6123725  -0.5000000), wk =   0.0080000
        k(  168) = (   0.4618802   0.5715477  -0.4000000), wk =   0.0080000
        k(  169) = (   0.4041452   0.5307228  -0.3000000), wk =   0.0080000
        k(  170) = (   0.3464102   0.4898980  -0.2000000), wk =   0.0080000
        k(  171) = (   0.2886751   0.4490732  -0.1000000), wk =   0.0080000
        k(  172) = (   0.2309401  -0.6940221   0.0000000), wk =   0.0040000
        k(  173) = (   0.0000000  -0.8573214   0.4000000), wk =   0.0080000
        k(  174) = (   0.5196152  -0.4898979  -0.5000000), wk =   0.0080000
        k(  175) = (   0.4618802  -0.5307227  -0.4000000), wk =   0.0080000
        k(  176) = (   0.4041452  -0.5715476  -0.3000000), wk =   0.0080000
        k(  177) = (   0.3464102  -0.6123724  -0.2000000), wk =   0.0080000
        k(  178) = (   0.2886751  -0.6531973  -0.1000000), wk =   0.0080000
        k(  179) = (   0.2309401  -0.5715476   0.0000000), wk =   0.0040000
        k(  180) = (   0.0000000  -0.7348469   0.4000000), wk =   0.0080000
        k(  181) = (   0.5196152  -0.3674234  -0.5000000), wk =   0.0080000
        k(  182) = (   0.4618802  -0.4082483  -0.4000000), wk =   0.0080000
        k(  183) = (   0.4041452  -0.4490731  -0.3000000), wk =   0.0080000
        k(  184) = (   0.3464102  -0.4898979  -0.2000000), wk =   0.0080000
        k(  185) = (   0.2886751  -0.5307228  -0.1000000), wk =   0.0080000
        k(  186) = (   0.2309401  -0.4490731   0.0000000), wk =   0.0040000
        k(  187) = (   0.0000000  -0.6123724   0.4000000), wk =   0.0040000
        k(  188) = (   0.5196152  -0.2449489  -0.5000000), wk =   0.0080000
        k(  189) = (   0.4618802  -0.2857738  -0.4000000), wk =   0.0080000
        k(  190) = (   0.4041452  -0.3265986  -0.3000000), wk =   0.0080000
        k(  191) = (   0.3464102  -0.3674234  -0.2000000), wk =   0.0080000
        k(  192) = (   0.2886751  -0.4082483  -0.1000000), wk =   0.0080000
        k(  193) = (   0.2309401  -0.3265986   0.0000000), wk =   0.0040000
        k(  194) = (   0.5196152  -0.1224744  -0.5000000), wk =   0.0080000
        k(  195) = (   0.4618802  -0.1632993  -0.4000000), wk =   0.0080000
        k(  196) = (   0.4041452  -0.2041241  -0.3000000), wk =   0.0080000
        k(  197) = (   0.3464102  -0.2449489  -0.2000000), wk =   0.0080000
        k(  198) = (   0.2886751  -0.2857738  -0.1000000), wk =   0.0080000
        k(  199) = (   0.2309401  -0.2041241   0.0000000), wk =   0.0040000
        k(  200) = (   0.5196152   0.0000000  -0.5000000), wk =   0.0080000
        k(  201) = (   0.4618802  -0.0408248  -0.4000000), wk =   0.0080000
        k(  202) = (   0.4041452  -0.0816496  -0.3000000), wk =   0.0080000
        k(  203) = (   0.3464102  -0.1224745  -0.2000000), wk =   0.0080000
        k(  204) = (   0.2886751  -0.1632993  -0.1000000), wk =   0.0080000
        k(  205) = (   0.3464102  -0.1224745   0.0000000), wk =   0.0040000
        k(  206) = (   0.5773503   0.0408249  -0.4000000), wk =   0.0080000
        k(  207) = (   0.5196152   0.0000000  -0.3000000), wk =   0.0080000
        k(  208) = (   0.4618802  -0.0408248  -0.2000000), wk =   0.0080000
        k(  209) = (   0.4041452  -0.0816496  -0.1000000), wk =   0.0080000
        k(  210) = (   0.3464102   0.0000000   0.0000000), wk =   0.0040000
        k(  211) = (   0.5773503   0.1632994  -0.4000000), wk =   0.0080000
        k(  212) = (   0.5196152   0.1224745  -0.3000000), wk =   0.0080000
        k(  213) = (   0.4618802   0.0816497  -0.2000000), wk =   0.0080000
        k(  214) = (   0.4041452   0.0408249  -0.1000000), wk =   0.0080000
        k(  215) = (   0.3464102   0.1224745   0.0000000), wk =   0.0040000
        k(  216) = (   0.5773503   0.2857739  -0.4000000), wk =   0.0080000
        k(  217) = (   0.5196152   0.2449490  -0.3000000), wk =   0.0080000
        k(  218) = (   0.4618802   0.2041242  -0.2000000), wk =   0.0080000
        k(  219) = (   0.4041452   0.1632994  -0.1000000), wk =   0.0080000
        k(  220) = (   0.3464102   0.2449490   0.0000000), wk =   0.0040000
        k(  221) = (   0.5773503   0.4082484  -0.4000000), wk =   0.0040000
        k(  222) = (   0.5196152   0.3674235  -0.3000000), wk =   0.0080000
        k(  223) = (   0.4618802   0.3265987  -0.2000000), wk =   0.0080000
        k(  224) = (   0.4041452   0.2857738  -0.1000000), wk =   0.0080000
        k(  225) = (   0.3464102   0.3674235   0.0000000), wk =   0.0040000
        k(  226) = (   0.5196152   0.4898980  -0.3000000), wk =   0.0080000
        k(  227) = (   0.4618802   0.4490732  -0.2000000), wk =   0.0080000
        k(  228) = (   0.4041452   0.4082483  -0.1000000), wk =   0.0080000
        k(  229) = (   0.3464102  -0.7348469   0.0000000), wk =   0.0040000
        k(  230) = (   0.5196152  -0.6123724  -0.3000000), wk =   0.0080000
        k(  231) = (   0.4618802  -0.6531972  -0.2000000), wk =   0.0080000
        k(  232) = (   0.4041452  -0.6940221  -0.1000000), wk =   0.0080000
        k(  233) = (   0.3464102  -0.6123724   0.0000000), wk =   0.0040000
        k(  234) = (   0.5196152  -0.4898979  -0.3000000), wk =   0.0080000
        k(  235) = (   0.4618802  -0.5307227  -0.2000000), wk =   0.0080000
        k(  236) = (   0.4041452  -0.5715476  -0.1000000), wk =   0.0080000
        k(  237) = (   0.3464102  -0.4898979   0.0000000), wk =   0.0040000
        k(  238) = (   0.5773503  -0.3265986  -0.4000000), wk =   0.0080000
        k(  239) = (   0.5196152  -0.3674234  -0.3000000), wk =   0.0080000
        k(  240) = (   0.4618802  -0.4082483  -0.2000000), wk =   0.0080000
        k(  241) = (   0.4041452  -0.4490731  -0.1000000), wk =   0.0080000
        k(  242) = (   0.3464102  -0.3674234   0.0000000), wk =   0.0040000
        k(  243) = (   0.5773503  -0.2041241  -0.4000000), wk =   0.0040000
        k(  244) = (   0.5196152  -0.2449489  -0.3000000), wk =   0.0080000
        k(  245) = (   0.4618802  -0.2857738  -0.2000000), wk =   0.0080000
        k(  246) = (   0.4041452  -0.3265986  -0.1000000), wk =   0.0080000
        k(  247) = (   0.3464102  -0.2449489   0.0000000), wk =   0.0040000
        k(  248) = (   0.5196152  -0.1224744  -0.3000000), wk =   0.0080000
        k(  249) = (   0.4618802  -0.1632993  -0.2000000), wk =   0.0080000
        k(  250) = (   0.4041452  -0.2041241  -0.1000000), wk =   0.0080000
        k(  251) = (   0.4618802  -0.1632993   0.0000000), wk =   0.0040000
        k(  252) = (   0.5773503  -0.0816496  -0.2000000), wk =   0.0080000
        k(  253) = (   0.5196152  -0.1224744  -0.1000000), wk =   0.0080000
        k(  254) = (   0.4618802  -0.0408248   0.0000000), wk =   0.0040000
        k(  255) = (   0.5773503   0.0408249  -0.2000000), wk =   0.0080000
        k(  256) = (   0.5196152   0.0000000  -0.1000000), wk =   0.0080000
        k(  257) = (   0.4618802   0.0816497   0.0000000), wk =   0.0040000
        k(  258) = (   0.5773503   0.1632994  -0.2000000), wk =   0.0080000
        k(  259) = (   0.5196152   0.1224745  -0.1000000), wk =   0.0080000
        k(  260) = (   0.4618802   0.2041242   0.0000000), wk =   0.0040000
        k(  261) = (   0.5773503   0.2857739  -0.2000000), wk =   0.0080000
        k(  262) = (   0.5196152   0.2449490  -0.1000000), wk =   0.0080000
        k(  263) = (   0.4618802   0.3265987   0.0000000), wk =   0.0040000
        k(  264) = (   0.5773503   0.4082484  -0.2000000), wk =   0.0040000
        k(  265) = (   0.5196152   0.3674235  -0.1000000), wk =   0.0080000
        k(  266) = (   0.4618802  -0.7756717   0.0000000), wk =   0.0040000
        k(  267) = (   0.5196152  -0.7348469  -0.1000000), wk =   0.0080000
        k(  268) = (   0.4618802  -0.6531972   0.0000000), wk =   0.0040000
        k(  269) = (   0.5196152  -0.6123724  -0.1000000), wk =   0.0080000
        k(  270) = (   0.4618802  -0.5307227   0.0000000), wk =   0.0040000
        k(  271) = (   0.5196152  -0.4898979  -0.1000000), wk =   0.0080000
        k(  272) = (   0.4618802  -0.4082483   0.0000000), wk =   0.0040000
        k(  273) = (   0.5196152  -0.3674234  -0.1000000), wk =   0.0080000
        k(  274) = (   0.4618802  -0.2857738   0.0000000), wk =   0.0040000
        k(  275) = (   0.5773503  -0.2041241  -0.2000000), wk =   0.0040000
        k(  276) = (   0.5196152  -0.2449489  -0.1000000), wk =   0.0080000
        k(  277) = (  -0.5773503   0.2041241   0.0000000), wk =   0.0020000
        k(  278) = (  -0.5773503   0.3265986   0.0000000), wk =   0.0040000
        k(  279) = (  -0.5773503   0.4490731   0.0000000), wk =   0.0040000
        k(  280) = (  -0.5773503   0.5715476   0.0000000), wk =   0.0040000
        k(  281) = (  -0.5773503   0.6940221   0.0000000), wk =   0.0040000
        k(  282) = (  -0.5773503  -0.4082484   0.0000000), wk =   0.0020000

                       cryst. coord.
        k(    1) = (   0.0000000   0.0000000   0.0000000), wk =   0.0020000
        k(    2) = (   0.0000000   0.0000000   0.1000000), wk =   0.0080000
        k(    3) = (   0.0000000   0.0000000   0.2000000), wk =   0.0080000
        k(    4) = (   0.0000000   0.0000000   0.3000000), wk =   0.0080000
        k(    5) = (   0.0000000   0.0000000   0.4000000), wk =   0.0080000
        k(    6) = (  -0.0000000   0.0000000  -0.5000000), wk =   0.0040000
        k(    7) = (   0.0000000   0.1000000   0.0000000), wk =   0.0040000
        k(    8) = (   0.0000000   0.1000000   0.1000000), wk =   0.0080000
        k(    9) = (   0.0000000   0.1000000   0.2000000), wk =   0.0080000
        k(   10) = (   0.0000000   0.1000000   0.3000000), wk =   0.0080000
        k(   11) = (   0.0000000   0.1000000   0.4000000), wk =   0.0080000
        k(   12) = (  -0.0000000   0.1000000  -0.5000000), wk =   0.0080000
        k(   13) = (   0.0000000   0.1000000  -0.4000000), wk =   0.0080000
        k(   14) = (   0.0000000   0.1000000  -0.3000000), wk =   0.0080000
        k(   15) = (   0.0000000   0.1000000  -0.2000000), wk =   0.0080000
        k(   16) = (   0.0000000   0.1000000  -0.1000000), wk =   0.0080000
        k(   17) = (   0.0000000   0.2000000   0.0000000), wk =   0.0040000
        k(   18) = (   0.0000000   0.2000000   0.1000000), wk =   0.0080000
        k(   19) = (   0.0000000   0.2000000   0.2000000), wk =   0.0080000
        k(   20) = (   0.0000000   0.2000000   0.3000000), wk =   0.0080000
        k(   21) = (   0.0000000   0.2000000   0.4000000), wk =   0.0080000
        k(   22) = (  -0.0000000   0.2000000  -0.5000000), wk =   0.0080000
        k(   23) = (   0.0000000   0.2000000  -0.4000000), wk =   0.0080000
        k(   24) = (   0.0000000   0.2000000  -0.3000000), wk =   0.0080000
        k(   25) = (   0.0000000   0.2000000  -0.2000000), wk =   0.0080000
        k(   26) = (   0.0000000   0.2000000  -0.1000000), wk =   0.0080000
        k(   27) = (   0.0000000   0.3000000   0.0000000), wk =   0.0040000
        k(   28) = (   0.0000000   0.3000000   0.1000000), wk =   0.0080000
        k(   29) = (   0.0000000   0.3000000   0.2000000), wk =   0.0080000
        k(   30) = (   0.0000000   0.3000000   0.3000000), wk =   0.0080000
        k(   31) = (   0.0000000   0.3000000   0.4000000), wk =   0.0080000
        k(   32) = (  -0.0000000   0.3000000  -0.5000000), wk =   0.0080000
        k(   33) = (   0.0000000   0.3000000  -0.4000000), wk =   0.0080000
        k(   34) = (   0.0000000   0.3000000  -0.3000000), wk =   0.0080000
        k(   35) = (   0.0000000   0.3000000  -0.2000000), wk =   0.0080000
        k(   36) = (   0.0000000   0.3000000  -0.1000000), wk =   0.0080000
        k(   37) = (   0.0000000   0.4000000   0.0000000), wk =   0.0040000
        k(   38) = (   0.0000000   0.4000000   0.1000000), wk =   0.0080000
        k(   39) = (   0.0000000   0.4000000   0.2000000), wk =   0.0080000
        k(   40) = (   0.0000000   0.4000000   0.3000000), wk =   0.0080000
        k(   41) = (   0.0000000   0.4000000   0.4000000), wk =   0.0080000
        k(   42) = (  -0.0000000   0.4000000  -0.5000000), wk =   0.0080000
        k(   43) = (   0.0000000   0.4000000  -0.4000000), wk =   0.0080000
        k(   44) = (   0.0000000   0.4000000  -0.3000000), wk =   0.0080000
        k(   45) = (   0.0000000   0.4000000  -0.2000000), wk =   0.0080000
        k(   46) = (   0.0000000   0.4000000  -0.1000000), wk =   0.0080000
        k(   47) = (   0.0000000  -0.5000000   0.0000000), wk =   0.0020000
        k(   48) = (   0.0000000  -0.5000000   0.1000000), wk =   0.0080000
        k(   49) = (   0.0000000  -0.5000000   0.2000000), wk =   0.0080000
        k(   50) = (   0.0000000  -0.5000000   0.3000000), wk =   0.0080000
        k(   51) = (   0.0000000  -0.5000000   0.4000000), wk =   0.0080000
        k(   52) = (  -0.0000000  -0.5000000  -0.5000000), wk =   0.0040000
        k(   53) = (   0.1000000   0.0000000   0.0000000), wk =   0.0040000
        k(   54) = (   0.1000000   0.0000000   0.2000000), wk =   0.0080000
        k(   55) = (   0.1000000   0.0000000   0.3000000), wk =   0.0080000
        k(   56) = (   0.1000000   0.0000000   0.4000000), wk =   0.0080000
        k(   57) = (   0.1000000   0.0000000  -0.5000000), wk =   0.0080000
        k(   58) = (   0.1000000   0.0000000  -0.4000000), wk =   0.0080000
        k(   59) = (   0.1000000   0.0000000  -0.3000000), wk =   0.0080000
        k(   60) = (   0.1000000   0.0000000  -0.2000000), wk =   0.0080000
        k(   61) = (   0.1000000   0.0000000  -0.1000000), wk =   0.0080000
        k(   62) = (   0.1000000   0.1000000   0.0000000), wk =   0.0040000
        k(   63) = (   0.1000000   0.1000000   0.2000000), wk =   0.0040000
        k(   64) = (   0.1000000   0.1000000   0.3000000), wk =   0.0080000
        k(   65) = (   0.1000000   0.1000000   0.4000000), wk =   0.0080000
        k(   66) = (   0.1000000   0.1000000  -0.5000000), wk =   0.0080000
        k(   67) = (   0.1000000   0.1000000  -0.4000000), wk =   0.0080000
        k(   68) = (   0.1000000   0.1000000  -0.3000000), wk =   0.0080000
        k(   69) = (   0.1000000   0.1000000  -0.2000000), wk =   0.0080000
        k(   70) = (   0.1000000   0.1000000  -0.1000000), wk =   0.0080000
        k(   71) = (   0.1000000   0.2000000   0.0000000), wk =   0.0040000
        k(   72) = (   0.1000000   0.2000000   0.3000000), wk =   0.0080000
        k(   73) = (   0.1000000   0.2000000   0.4000000), wk =   0.0080000
        k(   74) = (   0.1000000   0.2000000  -0.5000000), wk =   0.0080000
        k(   75) = (   0.1000000   0.2000000  -0.4000000), wk =   0.0080000
        k(   76) = (   0.1000000   0.2000000  -0.3000000), wk =   0.0080000
        k(   77) = (   0.1000000   0.2000000  -0.2000000), wk =   0.0080000
        k(   78) = (   0.1000000   0.2000000  -0.1000000), wk =   0.0080000
        k(   79) = (   0.1000000   0.3000000   0.0000000), wk =   0.0040000
        k(   80) = (   0.1000000   0.3000000   0.2000000), wk =   0.0080000
        k(   81) = (   0.1000000   0.3000000   0.3000000), wk =   0.0080000
        k(   82) = (   0.1000000   0.3000000   0.4000000), wk =   0.0080000
        k(   83) = (   0.1000000   0.3000000  -0.5000000), wk =   0.0080000
        k(   84) = (   0.1000000   0.3000000  -0.4000000), wk =   0.0080000
        k(   85) = (   0.1000000   0.3000000  -0.3000000), wk =   0.0080000
        k(   86) = (   0.1000000   0.3000000  -0.2000000), wk =   0.0080000
        k(   87) = (   0.1000000   0.3000000  -0.1000000), wk =   0.0080000
        k(   88) = (   0.1000000   0.4000000   0.0000000), wk =   0.0040000
        k(   89) = (   0.1000000   0.4000000   0.2000000), wk =   0.0080000
        k(   90) = (   0.1000000   0.4000000   0.3000000), wk =   0.0080000
        k(   91) = (   0.1000000   0.4000000   0.4000000), wk =   0.0080000
        k(   92) = (   0.1000000   0.4000000  -0.5000000), wk =   0.0080000
        k(   93) = (   0.1000000   0.4000000  -0.4000000), wk =   0.0080000
        k(   94) = (   0.1000000   0.4000000  -0.3000000), wk =   0.0080000
        k(   95) = (   0.1000000   0.4000000  -0.2000000), wk =   0.0080000
        k(   96) = (   0.1000000   0.4000000  -0.1000000), wk =   0.0080000
        k(   97) = (   0.1000000  -0.5000000   0.0000000), wk =   0.0040000
        k(   98) = (   0.1000000  -0.5000000   0.2000000), wk =   0.0080000
        k(   99) = (   0.1000000  -0.5000000   0.3000000), wk =   0.0080000
        k(  100) = (   0.1000000  -0.5000000   0.4000000), wk =   0.0080000
        k(  101) = (   0.1000000  -0.5000000  -0.5000000), wk =   0.0080000
        k(  102) = (   0.1000000  -0.5000000  -0.4000000), wk =   0.0080000
        k(  103) = (   0.1000000  -0.5000000  -0.3000000), wk =   0.0080000
        k(  104) = (   0.1000000  -0.5000000  -0.2000000), wk =   0.0080000
        k(  105) = (   0.1000000  -0.5000000  -0.1000000), wk =   0.0080000
        k(  106) = (   0.1000000  -0.4000000   0.0000000), wk =   0.0040000
        k(  107) = (   0.1000000  -0.4000000   0.2000000), wk =   0.0040000
        k(  108) = (   0.1000000  -0.4000000   0.3000000), wk =   0.0080000
        k(  109) = (   0.1000000  -0.4000000   0.4000000), wk =   0.0080000
        k(  110) = (   0.1000000  -0.4000000  -0.5000000), wk =   0.0080000
        k(  111) = (   0.1000000  -0.4000000  -0.4000000), wk =   0.0080000
        k(  112) = (   0.1000000  -0.4000000  -0.3000000), wk =   0.0080000
        k(  113) = (   0.1000000  -0.4000000  -0.2000000), wk =   0.0080000
        k(  114) = (   0.1000000  -0.4000000  -0.1000000), wk =   0.0080000
        k(  115) = (   0.1000000  -0.3000000   0.0000000), wk =   0.0040000
        k(  116) = (   0.1000000  -0.3000000   0.3000000), wk =   0.0080000
        k(  117) = (   0.1000000  -0.3000000   0.4000000), wk =   0.0080000
        k(  118) = (   0.1000000  -0.3000000  -0.5000000), wk =   0.0080000
        k(  119) = (   0.1000000  -0.3000000  -0.4000000), wk =   0.0080000
        k(  120) = (   0.1000000  -0.3000000  -0.3000000), wk =   0.0080000
        k(  121) = (   0.1000000  -0.3000000  -0.2000000), wk =   0.0080000
        k(  122) = (   0.1000000  -0.3000000  -0.1000000), wk =   0.0080000
        k(  123) = (   0.1000000  -0.2000000   0.0000000), wk =   0.0040000
        k(  124) = (   0.1000000  -0.2000000   0.3000000), wk =   0.0080000
        k(  125) = (   0.1000000  -0.2000000   0.4000000), wk =   0.0080000
        k(  126) = (   0.1000000  -0.2000000  -0.5000000), wk =   0.0080000
        k(  127) = (   0.1000000  -0.2000000  -0.4000000), wk =   0.0080000
        k(  128) = (   0.1000000  -0.2000000  -0.3000000), wk =   0.0080000
        k(  129) = (   0.1000000  -0.2000000  -0.2000000), wk =   0.0080000
        k(  130) = (   0.1000000  -0.2000000  -0.1000000), wk =   0.0080000
        k(  131) = (   0.1000000  -0.1000000   0.0000000), wk =   0.0040000
        k(  132) = (   0.1000000  -0.1000000   0.3000000), wk =   0.0080000
        k(  133) = (   0.1000000  -0.1000000   0.4000000), wk =   0.0080000
        k(  134) = (   0.1000000  -0.1000000  -0.5000000), wk =   0.0080000
        k(  135) = (   0.1000000  -0.1000000  -0.4000000), wk =   0.0080000
        k(  136) = (   0.1000000  -0.1000000  -0.3000000), wk =   0.0080000
        k(  137) = (   0.1000000  -0.1000000  -0.2000000), wk =   0.0080000
        k(  138) = (   0.1000000  -0.1000000  -0.1000000), wk =   0.0080000
        k(  139) = (   0.2000000   0.0000000   0.0000000), wk =   0.0040000
        k(  140) = (   0.2000000   0.0000000   0.4000000), wk =   0.0080000
        k(  141) = (   0.2000000  -0.0000000  -0.5000000), wk =   0.0080000
        k(  142) = (   0.2000000   0.0000000  -0.4000000), wk =   0.0080000
        k(  143) = (   0.2000000   0.0000000  -0.3000000), wk =   0.0080000
        k(  144) = (   0.2000000   0.0000000  -0.2000000), wk =   0.0080000
        k(  145) = (   0.2000000   0.0000000  -0.1000000), wk =   0.0080000
        k(  146) = (   0.2000000   0.1000000   0.0000000), wk =   0.0040000
        k(  147) = (   0.2000000   0.1000000   0.4000000), wk =   0.0080000
        k(  148) = (   0.2000000   0.1000000  -0.5000000), wk =   0.0080000
        k(  149) = (   0.2000000   0.1000000  -0.4000000), wk =   0.0080000
        k(  150) = (   0.2000000   0.1000000  -0.3000000), wk =   0.0080000
        k(  151) = (   0.2000000   0.1000000  -0.2000000), wk =   0.0080000
        k(  152) = (   0.2000000   0.1000000  -0.1000000), wk =   0.0080000
        k(  153) = (   0.2000000   0.2000000   0.0000000), wk =   0.0040000
        k(  154) = (   0.2000000   0.2000000   0.4000000), wk =   0.0040000
        k(  155) = (   0.2000000   0.2000000  -0.5000000), wk =   0.0080000
        k(  156) = (   0.2000000   0.2000000  -0.4000000), wk =   0.0080000
        k(  157) = (   0.2000000   0.2000000  -0.3000000), wk =   0.0080000
        k(  158) = (   0.2000000   0.2000000  -0.2000000), wk =   0.0080000
        k(  159) = (   0.2000000   0.2000000  -0.1000000), wk =   0.0080000
        k(  160) = (   0.2000000   0.3000000   0.0000000), wk =   0.0040000
        k(  161) = (   0.2000000   0.3000000  -0.5000000), wk =   0.0080000
        k(  162) = (   0.2000000   0.3000000  -0.4000000), wk =   0.0080000
        k(  163) = (   0.2000000   0.3000000  -0.3000000), wk =   0.0080000
        k(  164) = (   0.2000000   0.3000000  -0.2000000), wk =   0.0080000
        k(  165) = (   0.2000000   0.3000000  -0.1000000), wk =   0.0080000
        k(  166) = (   0.2000000   0.4000000   0.0000000), wk =   0.0040000
        k(  167) = (   0.2000000   0.4000000  -0.5000000), wk =   0.0080000
        k(  168) = (   0.2000000   0.4000000  -0.4000000), wk =   0.0080000
        k(  169) = (   0.2000000   0.4000000  -0.3000000), wk =   0.0080000
        k(  170) = (   0.2000000   0.4000000  -0.2000000), wk =   0.0080000
        k(  171) = (   0.2000000   0.4000000  -0.1000000), wk =   0.0080000
        k(  172) = (   0.2000000  -0.5000000   0.0000000), wk =   0.0040000
        k(  173) = (   0.2000000  -0.5000000   0.4000000), wk =   0.0080000
        k(  174) = (   0.2000000  -0.5000000  -0.5000000), wk =   0.0080000
        k(  175) = (   0.2000000  -0.5000000  -0.4000000), wk =   0.0080000
        k(  176) = (   0.2000000  -0.5000000  -0.3000000), wk =   0.0080000
        k(  177) = (   0.2000000  -0.5000000  -0.2000000), wk =   0.0080000
        k(  178) = (   0.2000000  -0.5000000  -0.1000000), wk =   0.0080000
        k(  179) = (   0.2000000  -0.4000000   0.0000000), wk =   0.0040000
        k(  180) = (   0.2000000  -0.4000000   0.4000000), wk =   0.0080000
        k(  181) = (   0.2000000  -0.4000000  -0.5000000), wk =   0.0080000
        k(  182) = (   0.2000000  -0.4000000  -0.4000000), wk =   0.0080000
        k(  183) = (   0.2000000  -0.4000000  -0.3000000), wk =   0.0080000
        k(  184) = (   0.2000000  -0.4000000  -0.2000000), wk =   0.0080000
        k(  185) = (   0.2000000  -0.4000000  -0.1000000), wk =   0.0080000
        k(  186) = (   0.2000000  -0.3000000   0.0000000), wk =   0.0040000
        k(  187) = (   0.2000000  -0.3000000   0.4000000), wk =   0.0040000
        k(  188) = (   0.2000000  -0.3000000  -0.5000000), wk =   0.0080000
        k(  189) = (   0.2000000  -0.3000000  -0.4000000), wk =   0.0080000
        k(  190) = (   0.2000000  -0.3000000  -0.3000000), wk =   0.0080000
        k(  191) = (   0.2000000  -0.3000000  -0.2000000), wk =   0.0080000
        k(  192) = (   0.2000000  -0.3000000  -0.1000000), wk =   0.0080000
        k(  193) = (   0.2000000  -0.2000000   0.0000000), wk =   0.0040000
        k(  194) = (   0.2000000  -0.2000000  -0.5000000), wk =   0.0080000
        k(  195) = (   0.2000000  -0.2000000  -0.4000000), wk =   0.0080000
        k(  196) = (   0.2000000  -0.2000000  -0.3000000), wk =   0.0080000
        k(  197) = (   0.2000000  -0.2000000  -0.2000000), wk =   0.0080000
        k(  198) = (   0.2000000  -0.2000000  -0.1000000), wk =   0.0080000
        k(  199) = (   0.2000000  -0.1000000   0.0000000), wk =   0.0040000
        k(  200) = (   0.2000000  -0.1000000  -0.5000000), wk =   0.0080000
        k(  201) = (   0.2000000  -0.1000000  -0.4000000), wk =   0.0080000
        k(  202) = (   0.2000000  -0.1000000  -0.3000000), wk =   0.0080000
        k(  203) = (   0.2000000  -0.1000000  -0.2000000), wk =   0.0080000
        k(  204) = (   0.2000000  -0.1000000  -0.1000000), wk =   0.0080000
        k(  205) = (   0.3000000   0.0000000   0.0000000), wk =   0.0040000
        k(  206) = (   0.3000000  -0.0000000  -0.4000000), wk =   0.0080000
        k(  207) = (   0.3000000   0.0000000  -0.3000000), wk =   0.0080000
        k(  208) = (   0.3000000   0.0000000  -0.2000000), wk =   0.0080000
        k(  209) = (   0.3000000   0.0000000  -0.1000000), wk =   0.0080000
        k(  210) = (   0.3000000   0.1000000   0.0000000), wk =   0.0040000
        k(  211) = (   0.3000000   0.1000000  -0.4000000), wk =   0.0080000
        k(  212) = (   0.3000000   0.1000000  -0.3000000), wk =   0.0080000
        k(  213) = (   0.3000000   0.1000000  -0.2000000), wk =   0.0080000
        k(  214) = (   0.3000000   0.1000000  -0.1000000), wk =   0.0080000
        k(  215) = (   0.3000000   0.2000000   0.0000000), wk =   0.0040000
        k(  216) = (   0.3000000   0.2000000  -0.4000000), wk =   0.0080000
        k(  217) = (   0.3000000   0.2000000  -0.3000000), wk =   0.0080000
        k(  218) = (   0.3000000   0.2000000  -0.2000000), wk =   0.0080000
        k(  219) = (   0.3000000   0.2000000  -0.1000000), wk =   0.0080000
        k(  220) = (   0.3000000   0.3000000   0.0000000), wk =   0.0040000
        k(  221) = (   0.3000000   0.3000000  -0.4000000), wk =   0.0040000
        k(  222) = (   0.3000000   0.3000000  -0.3000000), wk =   0.0080000
        k(  223) = (   0.3000000   0.3000000  -0.2000000), wk =   0.0080000
        k(  224) = (   0.3000000   0.3000000  -0.1000000), wk =   0.0080000
        k(  225) = (   0.3000000   0.4000000   0.0000000), wk =   0.0040000
        k(  226) = (   0.3000000   0.4000000  -0.3000000), wk =   0.0080000
        k(  227) = (   0.3000000   0.4000000  -0.2000000), wk =   0.0080000
        k(  228) = (   0.3000000   0.4000000  -0.1000000), wk =   0.0080000
        k(  229) = (   0.3000000  -0.5000000   0.0000000), wk =   0.0040000
        k(  230) = (   0.3000000  -0.5000000  -0.3000000), wk =   0.0080000
        k(  231) = (   0.3000000  -0.5000000  -0.2000000), wk =   0.0080000
        k(  232) = (   0.3000000  -0.5000000  -0.1000000), wk =   0.0080000
        k(  233) = (   0.3000000  -0.4000000   0.0000000), wk =   0.0040000
        k(  234) = (   0.3000000  -0.4000000  -0.3000000), wk =   0.0080000
        k(  235) = (   0.3000000  -0.4000000  -0.2000000), wk =   0.0080000
        k(  236) = (   0.3000000  -0.4000000  -0.1000000), wk =   0.0080000
        k(  237) = (   0.3000000  -0.3000000   0.0000000), wk =   0.0040000
        k(  238) = (   0.3000000  -0.3000000  -0.4000000), wk =   0.0080000
        k(  239) = (   0.3000000  -0.3000000  -0.3000000), wk =   0.0080000
        k(  240) = (   0.3000000  -0.3000000  -0.2000000), wk =   0.0080000
        k(  241) = (   0.3000000  -0.3000000  -0.1000000), wk =   0.0080000
        k(  242) = (   0.3000000  -0.2000000   0.0000000), wk =   0.0040000
        k(  243) = (   0.3000000  -0.2000000  -0.4000000), wk =   0.0040000
        k(  244) = (   0.3000000  -0.2000000  -0.3000000), wk =   0.0080000
        k(  245) = (   0.3000000  -0.2000000  -0.2000000), wk =   0.0080000
        k(  246) = (   0.3000000  -0.2000000  -0.1000000), wk =   0.0080000
        k(  247) = (   0.3000000  -0.1000000   0.0000000), wk =   0.0040000
        k(  248) = (   0.3000000  -0.1000000  -0.3000000), wk =   0.0080000
        k(  249) = (   0.3000000  -0.1000000  -0.2000000), wk =   0.0080000
        k(  250) = (   0.3000000  -0.1000000  -0.1000000), wk =   0.0080000
        k(  251) = (   0.4000000   0.0000000   0.0000000), wk =   0.0040000
        k(  252) = (   0.4000000   0.0000000  -0.2000000), wk =   0.0080000
        k(  253) = (   0.4000000   0.0000000  -0.1000000), wk =   0.0080000
        k(  254) = (   0.4000000   0.1000000   0.0000000), wk =   0.0040000
        k(  255) = (   0.4000000   0.1000000  -0.2000000), wk =   0.0080000
        k(  256) = (   0.4000000   0.1000000  -0.1000000), wk =   0.0080000
        k(  257) = (   0.4000000   0.2000000   0.0000000), wk =   0.0040000
        k(  258) = (   0.4000000   0.2000000  -0.2000000), wk =   0.0080000
        k(  259) = (   0.4000000   0.2000000  -0.1000000), wk =   0.0080000
        k(  260) = (   0.4000000   0.3000000   0.0000000), wk =   0.0040000
        k(  261) = (   0.4000000   0.3000000  -0.2000000), wk =   0.0080000
        k(  262) = (   0.4000000   0.3000000  -0.1000000), wk =   0.0080000
        k(  263) = (   0.4000000   0.4000000   0.0000000), wk =   0.0040000
        k(  264) = (   0.4000000   0.4000000  -0.2000000), wk =   0.0040000
        k(  265) = (   0.4000000   0.4000000  -0.1000000), wk =   0.0080000
        k(  266) = (   0.4000000  -0.5000000   0.0000000), wk =   0.0040000
        k(  267) = (   0.4000000  -0.5000000  -0.1000000), wk =   0.0080000
        k(  268) = (   0.4000000  -0.4000000   0.0000000), wk =   0.0040000
        k(  269) = (   0.4000000  -0.4000000  -0.1000000), wk =   0.0080000
        k(  270) = (   0.4000000  -0.3000000   0.0000000), wk =   0.0040000
        k(  271) = (   0.4000000  -0.3000000  -0.1000000), wk =   0.0080000
        k(  272) = (   0.4000000  -0.2000000   0.0000000), wk =   0.0040000
        k(  273) = (   0.4000000  -0.2000000  -0.1000000), wk =   0.0080000
        k(  274) = (   0.4000000  -0.1000000   0.0000000), wk =   0.0040000
        k(  275) = (   0.4000000  -0.1000000  -0.2000000), wk =   0.0040000
        k(  276) = (   0.4000000  -0.1000000  -0.1000000), wk =   0.0080000
        k(  277) = (  -0.5000000   0.0000000   0.0000000), wk =   0.0020000
        k(  278) = (  -0.5000000   0.1000000   0.0000000), wk =   0.0040000
        k(  279) = (  -0.5000000   0.2000000   0.0000000), wk =   0.0040000
        k(  280) = (  -0.5000000   0.3000000   0.0000000), wk =   0.0040000
        k(  281) = (  -0.5000000   0.4000000   0.0000000), wk =   0.0040000
        k(  282) = (  -0.5000000  -0.5000000   0.0000000), wk =   0.0020000

     Dense  grid:    29939 G-vectors     FFT dimensions: (  45,  45,  45)

     Dynamical RAM for                 wfc:       0.91 MB

     Dynamical RAM for     wfc (w. buffer):     258.47 MB

     Dynamical RAM for           str. fact:       0.91 MB

     Dynamical RAM for           local pot:       0.00 MB

     Dynamical RAM for          nlocal pot:       1.88 MB

     Dynamical RAM for                qrad:       2.78 MB

     Dynamical RAM for          rho,v,vnew:       3.46 MB

     Dynamical RAM for               rhoin:       1.15 MB

     Dynamical RAM for            rho*nmix:       7.31 MB

     Dynamical RAM for           G-vectors:       1.94 MB

     Dynamical RAM for          h,s,v(r/c):       0.01 MB

     Dynamical RAM for          <psi|beta>:       0.01 MB

     Dynamical RAM for      wfcinit/wfcrot:       5.53 MB

     Estimated static dynamical RAM per process >     282.75 MB

     Estimated max dynamical RAM per process >     288.28 MB

     Initial potential from superposition of free atoms

     starting charge    2.98797, renormalised to    3.00000
     Starting wfcs are   48 randomized atomic wfcs
